-- The following file was written from MATLAB using the MRST toolbox.

SPECGRID
15 15 7 1 F
/

COORD
     0.000000     0.000000    -5.021339     0.000000     0.000000    95.055556
   200.000000     0.000000    -3.708613   200.000000     0.000000    96.271527
   400.000000     0.000000    -2.386538   400.000000     0.000000    97.500280
   600.000000     0.000000    -1.241978   600.000000     0.000000    98.571088
   800.000000     0.000000    -0.405312   800.000000     0.000000    99.366325
  1000.000000     0.000000     0.069163  1000.000000     0.000000    99.838858
  1200.000000     0.000000     0.208669  1200.000000     0.000000   100.016243
  1400.000000     0.000000     0.112463  1400.000000     0.000000    99.991187
  1600.000000     0.000000    -0.070717  1600.000000     0.000000    99.900128
  1800.000000     0.000000    -0.174142  1800.000000     0.000000    99.893866
  2000.000000     0.000000    -0.047824  2000.000000     0.000000   100.105586
  2200.000000     0.000000     0.409773  2200.000000     0.000000   100.622060
  2400.000000     0.000000     1.228790  2400.000000     0.000000   101.463248
  2600.000000     0.000000     2.357980  2600.000000     0.000000   102.574068
  2800.000000     0.000000     3.669624  2800.000000     0.000000   103.829979
  3000.000000     0.000000     4.978661  3000.000000     0.000000   105.055556
     0.000000   200.000000    -4.263461     0.000000   200.000000    95.658453
   200.000000   200.000000    -2.926059   200.000000   200.000000    96.836408
   400.000000   200.000000    -1.714619   400.000000   200.000000    97.929472
   600.000000   200.000000    -0.796875   600.000000   200.000000    98.790380
   800.000000   200.000000    -0.263987   800.000000   200.000000    99.337800
  1000.000000   200.000000    -0.117726  1000.000000   200.000000    99.567447
  1200.000000   200.000000    -0.274120  1200.000000   200.000000    99.548876
  1400.000000   200.000000    -0.582747  1400.000000   200.000000    99.408677
  1600.000000   200.000000    -0.858140  1600.000000   200.000000    99.303195
  1800.000000   200.000000    -0.917625  1800.000000   200.000000    99.385725
  2000.000000   200.000000    -0.618813  2000.000000   200.000000    99.774100
  2200.000000   200.000000     0.110009  2200.000000   200.000000   100.524546
  2400.000000   200.000000     1.252081  2400.000000   200.000000   101.616566
  2600.000000   200.000000     2.700300  2600.000000   200.000000   102.951709
  2800.000000   200.000000     4.271782  2800.000000   200.000000   104.366645
  3000.000000   200.000000     5.736539  3000.000000   200.000000   105.658453
     0.000000   400.000000    -3.607490     0.000000   400.000000    96.211115
   200.000000   400.000000    -2.353796   200.000000   400.000000    97.348183
   400.000000   400.000000    -1.325013   400.000000   400.000000    98.311870
   600.000000   400.000000    -0.657294   600.000000   400.000000    98.977280
   800.000000   400.000000    -0.398564   800.000000   400.000000    99.296885
  1000.000000   400.000000    -0.503193  1000.000000   400.000000    99.305793
  1200.000000   400.000000    -0.843825  1200.000000   400.000000    99.111724
  1400.000000   400.000000    -1.238184  1400.000000   400.000000    98.871615
  1600.000000   400.000000    -1.485977  1600.000000   400.000000    98.759087
  1800.000000   400.000000    -1.409304  1800.000000   400.000000    98.928651
  2000.000000   400.000000    -0.889318  2000.000000   400.000000    99.483092
  2200.000000   400.000000     0.107451  2200.000000   400.000000   100.449923
  2400.000000   400.000000     1.517912  2400.000000   400.000000   101.771230
  2600.000000   400.000000     3.188555  2600.000000   400.000000   103.308918
  2800.000000   400.000000     4.898038  2800.000000   400.000000   104.864634
  3000.000000   400.000000     6.392510  3000.000000   400.000000   106.211115
     0.000000   600.000000    -3.118865     0.000000   600.000000    96.716467
   200.000000   600.000000    -2.082459   200.000000   600.000000    97.756243
   400.000000   600.000000    -1.317881   400.000000   600.000000    98.552082
   600.000000   600.000000    -0.915600   600.000000   600.000000    99.008109
   800.000000   600.000000    -0.877645   800.000000   600.000000    99.113000
  1000.000000   600.000000    -1.120210  1000.000000   600.000000    98.938989
  1200.000000   600.000000    -1.492091  1200.000000   600.000000    98.625426
  1400.000000   600.000000    -1.805608  1400.000000   600.000000    98.349907
  1600.000000   600.000000    -1.874447  1600.000000   600.000000    98.292177
  1800.000000   600.000000    -1.551648  1800.000000   600.000000    98.597273
  2000.000000   600.000000    -0.760925  2000.000000   600.000000    99.344544
  2200.000000   600.000000     0.484381  2200.000000   600.000000   100.528161
  2400.000000   600.000000     2.078205  2400.000000   600.000000   102.052726
  2600.000000   600.000000     3.835331  2600.000000   600.000000   103.744999
  2800.000000   600.000000     5.519463  2800.000000   600.000000   105.379897
  3000.000000   600.000000     6.881135  3000.000000   600.000000   106.716467
     0.000000   800.000000    -2.785247     0.000000   800.000000    97.175780
   200.000000   800.000000    -2.063771   200.000000   800.000000    98.018393
   400.000000   800.000000    -1.617354   400.000000   800.000000    98.571740
   600.000000   800.000000    -1.481452   600.000000   800.000000    98.781877
   800.000000   800.000000    -1.612036   800.000000   800.000000    98.679995
  1000.000000   800.000000    -1.896157  1000.000000   800.000000    98.374082
  1200.000000   800.000000    -2.175426  1200.000000   800.000000    98.026294
  1400.000000   800.000000    -2.278175  1400.000000   800.000000    97.820146
  1600.000000   800.000000    -2.054536  1600.000000   800.000000    97.923387
  1800.000000   800.000000    -1.408120  1800.000000   800.000000    98.453221
  2000.000000   800.000000    -0.318596  2000.000000   800.000000    99.450139
  2200.000000   800.000000     1.149026  2200.000000   800.000000   100.865143
  2400.000000   800.000000     2.850245  2400.000000   800.000000   102.562829
  2600.000000   800.000000     4.581272  2600.000000   800.000000   104.340021
  2800.000000   800.000000     6.110326  2800.000000   800.000000   105.956954
  3000.000000   800.000000     7.214753  3000.000000   800.000000   107.175780
     0.000000  1000.000000    -2.539350     0.000000  1000.000000    97.573161
   200.000000  1000.000000    -2.152440   200.000000  1000.000000    98.118814
   400.000000  1000.000000    -2.025258   400.000000  1000.000000    98.357836
   600.000000  1000.000000    -2.138060   600.000000  1000.000000    98.290634
   800.000000  1000.000000    -2.403815   800.000000  1000.000000    97.996354
  1000.000000  1000.000000    -2.686201  1000.000000  1000.000000    97.616250
  1200.000000  1000.000000    -2.827129  1200.000000  1000.000000    97.325307
  1400.000000  1000.000000    -2.678852  1400.000000  1000.000000    97.297212
  1600.000000  1000.000000    -2.134905  1600.000000  1000.000000    97.668925
  1800.000000  1000.000000    -1.154286  1800.000000  1000.000000    98.511230
  2000.000000  1000.000000     0.225551  2000.000000  1000.000000    99.810589
  2200.000000  1000.000000     1.889399  2200.000000  1000.000000   101.465709
  2400.000000  1000.000000     3.658825  2400.000000  1000.000000   103.299667
  2600.000000  1000.000000     5.318250  2600.000000  1000.000000   105.085726
  2800.000000  1000.000000     6.648271  2800.000000  1000.000000   106.582586
  3000.000000  1000.000000     7.460650  3000.000000  1000.000000   107.573161
     0.000000  1200.000000    -2.316061     0.000000  1200.000000    97.873482
   200.000000  1200.000000    -2.209203   200.000000  1200.000000    98.071642
   400.000000  1200.000000    -2.352257   400.000000  1200.000000    97.971329
   600.000000  1200.000000    -2.678754   600.000000  1200.000000    97.631622
   800.000000  1200.000000    -3.064713   800.000000  1200.000000    97.178786
  1000.000000  1200.000000    -3.353028  1000.000000  1200.000000    96.781491
  1200.000000  1200.000000    -3.384585  1200.000000  1200.000000    96.617695
  1400.000000  1200.000000    -3.030547  1400.000000  1200.000000    96.839099
  1600.000000  1200.000000    -2.220029  1600.000000  1200.000000    97.539523
  1800.000000  1200.000000    -0.958119  1800.000000  1200.000000    98.732914
  2000.000000  1200.000000     0.669090  2000.000000  1200.000000   100.345027
  2200.000000  1200.000000     2.503617  2200.000000  1200.000000   102.220493
  2400.000000  1200.000000     4.337520  2400.000000  1200.000000   104.144288
  2600.000000  1200.000000     5.944068  2600.000000  1200.000000   105.874140
  2800.000000  1200.000000     7.113002  2800.000000  1200.000000   107.178470
  3000.000000  1200.000000     7.683939  3000.000000  1200.000000   107.873482
     0.000000  1400.000000    -2.105483     0.000000  1400.000000    98.035663
   200.000000  1400.000000    -2.196496   200.000000  1400.000000    97.908094
   400.000000  1400.000000    -2.539619   400.000000  1400.000000    97.510329
   600.000000  1400.000000    -3.033789   600.000000  1400.000000    96.952881
   800.000000  1400.000000    -3.526031   800.000000  1400.000000    96.399666
  1000.000000  1400.000000    -3.840863  1000.000000  1400.000000    96.036708
  1200.000000  1400.000000    -3.814586  1200.000000  1400.000000    96.036029
  1400.000000  1400.000000    -3.328364  1400.000000  1400.000000    96.521124
  1600.000000  1400.000000    -2.334165  1600.000000  1400.000000    97.540222
  1800.000000  1400.000000    -0.868840  1800.000000  1400.000000    99.052165
  2000.000000  1400.000000     0.946347  2000.000000  1400.000000   100.927629
  2200.000000  1400.000000     2.920912  2200.000000  1400.000000   102.965708
  2400.000000  1400.000000     4.822698  2400.000000  1400.000000   104.923262
  2600.000000  1400.000000     6.413238  2600.000000  1400.000000   106.552182
  2800.000000  1400.000000     7.485041  2800.000000  1400.000000   107.638340
  3000.000000  1400.000000     7.894517  3000.000000  1400.000000   108.035663
     0.000000  1600.000000    -1.966374     0.000000  1600.000000    98.032974
   200.000000  1600.000000    -2.203318   200.000000  1600.000000    97.655805
   400.000000  1600.000000    -2.691193   400.000000  1600.000000    97.052065
   600.000000  1600.000000    -3.303906   600.000000  1600.000000    96.367879
   800.000000  1600.000000    -3.867986   800.000000  1600.000000    95.789078
  1000.000000  1600.000000    -4.195529  1000.000000  1600.000000    95.506111
  1200.000000  1600.000000    -4.120637  1200.000000  1600.000000    95.677167
  1400.000000  1600.000000    -3.532882  1400.000000  1600.000000    96.396049
  1600.000000  1600.000000    -2.401786  1600.000000  1600.000000    97.670559
  1800.000000  1600.000000    -0.787873  1800.000000  1600.000000    99.415378
  2000.000000  1600.000000     1.161903  2000.000000  1600.000000   101.460915
  2200.000000  1600.000000     3.233785  2200.000000  1600.000000   103.576858
  2400.000000  1600.000000     5.178790  2400.000000  1600.000000   105.506602
  2600.000000  1600.000000     6.750977  2600.000000  1600.000000   107.006847
  2800.000000  1600.000000     7.746029  2800.000000  1600.000000   107.885714
  3000.000000  1600.000000     8.033626  3000.000000  1600.000000   108.032974
     0.000000  1800.000000    -1.990788     0.000000  1800.000000    97.867193
   200.000000  1800.000000    -2.382811   200.000000  1800.000000    97.324070
   400.000000  1800.000000    -2.994729   400.000000  1800.000000    96.611735
   600.000000  1800.000000    -3.679001   600.000000  1800.000000    95.895092
   800.000000  1800.000000    -4.249782   800.000000  1800.000000    95.365583
  1000.000000  1800.000000    -4.518011  1000.000000  1800.000000    95.205133
  1200.000000  1800.000000    -4.328045  1200.000000  1800.000000    95.550749
  1400.000000  1800.000000    -3.589352  1400.000000  1800.000000    96.466050
  1600.000000  1800.000000    -2.297555  1600.000000  1800.000000    97.924874
  1800.000000  1800.000000    -0.540963  1800.000000  1800.000000    99.810035
  2000.000000  1800.000000     1.508798  2000.000000  1800.000000   101.927673
  2200.000000  1800.000000     3.620685  2200.000000  1800.000000   104.035011
  2400.000000  1800.000000     5.538796  2400.000000  1800.000000   105.876931
  2600.000000  1800.000000     7.021841  2600.000000  1800.000000   107.225318
  2800.000000  1800.000000     7.880915  2800.000000  1800.000000   107.914552
  3000.000000  1800.000000     8.009212  3000.000000  1800.000000   107.867193
     0.000000  2000.000000    -2.243158     0.000000  2000.000000    97.567435
   200.000000  2000.000000    -2.844030   200.000000  2000.000000    96.904576
   400.000000  2000.000000    -3.585047   400.000000  2000.000000    96.145041
   600.000000  2000.000000    -4.296347   600.000000  2000.000000    95.461892
   800.000000  2000.000000    -4.787412   800.000000  2000.000000    95.040782
  1000.000000  2000.000000    -4.882963  1000.000000  2000.000000    95.044892
  1200.000000  2000.000000    -4.457216  1200.000000  2000.000000    95.582775
  1400.000000  2000.000000    -3.460407  1400.000000  2000.000000    96.684805
  1600.000000  2000.000000    -1.932790  1600.000000  2000.000000    98.292534
  1800.000000  2000.000000    -0.003448  1800.000000  2000.000000   100.263028
  2000.000000  2000.000000     2.126121  2000.000000  2000.000000   102.387673
  2200.000000  2000.000000     4.211075  2200.000000  2000.000000   104.422478
  2400.000000  2000.000000     6.000169  2400.000000  2000.000000   106.124870
  2600.000000  2000.000000     7.274422  2600.000000  2000.000000   107.290858
  2800.000000  2000.000000     7.881031  2800.000000  2000.000000   107.786361
  3000.000000  2000.000000     7.756842  3000.000000  2000.000000   107.567435
     0.000000  2200.000000    -2.714138     0.000000  2200.000000    97.174405
   200.000000  2200.000000    -3.569821   200.000000  2200.000000    96.386868
   400.000000  2200.000000    -4.440154   400.000000  2200.000000    95.592169
   600.000000  2200.000000    -5.132914   600.000000  2200.000000    94.969455
   800.000000  2200.000000    -5.460788   800.000000  2200.000000    94.693925
  1000.000000  2200.000000    -5.276716  1000.000000  2200.000000    94.903592
  1200.000000  2200.000000    -4.503262  1200.000000  2200.000000    95.671462
  1400.000000  2200.000000    -3.150785  1400.000000  2200.000000    96.988145
  1600.000000  2200.000000    -1.321036  1600.000000  2200.000000    98.758077
  1800.000000  2200.000000     0.804660  1800.000000  2200.000000   100.810277
  2000.000000  2200.000000     2.990854  2000.000000  2200.000000   102.922003
  2200.000000  2200.000000     4.982913  2200.000000  2200.000000   104.851500
  2400.000000  2200.000000     6.545654  2400.000000  2200.000000   106.374401
  2600.000000  2200.000000     7.499234  2600.000000  2200.000000   107.317753
  2800.000000  2200.000000     7.746298  2800.000000  2200.000000   107.585968
  3000.000000  2200.000000     7.285862  3000.000000  2200.000000   107.174405
     0.000000  2400.000000    -3.319896     0.000000  2400.000000    96.720353
   200.000000  2400.000000    -4.415583   200.000000  2400.000000    95.777849
   400.000000  2400.000000    -5.379681   400.000000  2400.000000    94.933488
   600.000000  2400.000000    -6.003753   600.000000  2400.000000    94.375004
   800.000000  2400.000000    -6.112364   800.000000  2400.000000    94.266490
  1000.000000  2400.000000    -5.596364  1000.000000  2400.000000    94.717079
  1200.000000  2400.000000    -4.435713  1200.000000  2400.000000    95.758123
  1400.000000  2400.000000    -2.707718  1400.000000  2400.000000    97.332994
  1600.000000  2400.000000    -0.579062  1600.000000  2400.000000    99.301487
  1800.000000  2400.000000     1.717247  1800.000000  2400.000000   101.458287
  2000.000000  2400.000000     3.916259  2000.000000  2400.000000   103.562568
  2200.000000  2400.000000     5.761126  2200.000000  2400.000000   105.373858
  2400.000000  2400.000000     7.042114  2400.000000  2400.000000   106.688233
  2600.000000  2400.000000     7.628100  2600.000000  2400.000000   107.368794
  2800.000000  2400.000000     7.485287  2800.000000  2400.000000   107.365393
  3000.000000  2400.000000     6.680104  3000.000000  2400.000000   106.720353
     0.000000  2600.000000    -3.947629     0.000000  2600.000000    96.217691
   200.000000  2600.000000    -5.190284   200.000000  2600.000000    95.111890
   400.000000  2600.000000    -6.167396   400.000000  2600.000000    94.219383
   600.000000  2600.000000    -6.668279   600.000000  2600.000000    93.736227
   800.000000  2600.000000    -6.538798   800.000000  2600.000000    93.813493
  1000.000000  2600.000000    -5.710973  1000.000000  2600.000000    94.528189
  1200.000000  2600.000000    -4.218679  1200.000000  2600.000000    95.866000
  1400.000000  2600.000000    -2.196569  1400.000000  2600.000000    97.718986
  1600.000000  2600.000000     0.137821  1600.000000  2600.000000    99.898852
  1800.000000  2600.000000     2.515907  1800.000000  2600.000000   102.163735
  2000.000000  2600.000000     4.658602  2000.000000  2600.000000   104.254121
  2200.000000  2600.000000     6.318793  2200.000000  2600.000000   105.931941
  2400.000000  2600.000000     7.318680  2400.000000  2600.000000   107.016347
  2600.000000  2600.000000     7.575743  2600.000000  2600.000000   107.410206
  2800.000000  2600.000000     7.113061  2800.000000  2600.000000   107.112942
  3000.000000  2600.000000     6.052371  3000.000000  2600.000000   106.217691
     0.000000  2800.000000    -4.517626     0.000000  2800.000000    95.663366
   200.000000  2800.000000    -5.766764   200.000000  2800.000000    94.444192
   400.000000  2800.000000    -6.650680   400.000000  2800.000000    93.553762
   600.000000  2800.000000    -6.974802   600.000000  2800.000000    93.187776
   800.000000  2800.000000    -6.615561   800.000000  2800.000000    93.477043
  1000.000000  2800.000000    -5.544702  1000.000000  2800.000000    94.461916
  1200.000000  2800.000000    -3.838124  1200.000000  2800.000000    96.081363
  1400.000000  2800.000000    -1.667531  1400.000000  2800.000000    98.178746
  1600.000000  2800.000000     0.723865  1600.000000  2800.000000   100.523513
  1800.000000  2800.000000     3.057627  1800.000000  2800.000000   102.845288
  2000.000000  2800.000000     5.062328  2000.000000  2800.000000   104.874718
  2200.000000  2800.000000     6.514717  2200.000000  2800.000000   106.384276
  2400.000000  2800.000000     7.272926  2400.000000  2800.000000   107.222207
  2600.000000  2800.000000     7.296222  2600.000000  2800.000000   107.333995
  2800.000000  2800.000000     6.648104  2800.000000  2800.000000   106.767839
  3000.000000  2800.000000     5.482374  3000.000000  2800.000000   105.663366
     0.000000  3000.000000    -5.021339     0.000000  3000.000000    95.055556
   200.000000  3000.000000    -6.149033   200.000000  3000.000000    93.831107
   400.000000  3000.000000    -6.845407   400.000000  3000.000000    93.041411
   600.000000  3000.000000    -6.948317   600.000000  3000.000000    92.864749
   800.000000  3000.000000    -6.372444   800.000000  3000.000000    93.399194
  1000.000000  3000.000000    -5.126989  1000.000000  3000.000000    94.642705
  1200.000000  3000.000000    -3.318042  1200.000000  3000.000000    96.489531
  1400.000000  3000.000000    -1.135007  1400.000000  3000.000000    98.743717
  1600.000000  3000.000000     1.176753  1600.000000  3000.000000   101.147598
  1800.000000  3000.000000     3.352570  1800.000000  3000.000000   103.420577
  2000.000000  3000.000000     5.148328  2000.000000  3000.000000   105.301738
  2200.000000  3000.000000     6.376905  2200.000000  3000.000000   106.589192
  2400.000000  3000.000000     6.935129  2400.000000  3000.000000   107.169587
  2600.000000  3000.000000     6.816849  2600.000000  3000.000000   107.032937
  2800.000000  3000.000000     6.110044  2800.000000  3000.000000   106.270399
  3000.000000  3000.000000     4.978661  3000.000000  3000.000000   105.055556
/

ZCORN
    -7.021339    -5.708613    -5.708613    -4.386538    -4.386538    -3.241978    -3.241978    -2.405312
    -2.405312    -1.930837    -1.930837    -1.791331    -1.791331    -1.887537    -1.887537    -2.070717
    -2.070717    -2.174142    -0.174142    -0.047824    -0.047824     0.409773     0.409773     1.228790
     1.228790     2.357980     2.357980     3.669624     3.669624     4.978661    -6.263461    -4.926059
    -4.926059    -3.714619    -3.714619    -2.796875    -2.796875    -2.263987    -2.263987    -2.117726
    -2.117726    -2.274120    -2.274120    -2.582747    -2.582747    -2.858140    -2.858140    -2.917625
    -0.917625    -0.618813    -0.618813     0.110009     0.110009     1.252081     1.252081     2.700300
     2.700300     4.271782     4.271782     5.736539    -6.263461    -4.926059    -4.926059    -3.714619
    -3.714619    -2.796875    -2.796875    -2.263987    -2.263987    -2.117726    -2.117726    -2.274120
    -2.274120    -2.582747    -2.582747    -2.858140    -2.858140    -2.917625    -0.917625    -0.618813
    -0.618813     0.110009     0.110009     1.252081     1.252081     2.700300     2.700300     4.271782
     4.271782     5.736539    -5.607490    -4.353796    -4.353796    -3.325013    -3.325013    -2.657294
    -2.657294    -2.398564    -2.398564    -2.503193    -2.503193    -2.843825    -2.843825    -3.238184
    -3.238184    -3.485977    -3.485977    -3.409304    -1.409304    -0.889318    -0.889318     0.107451
     0.107451     1.517912     1.517912     3.188555     3.188555     4.898038     4.898038     6.392510
    -5.607490    -4.353796    -4.353796    -3.325013    -3.325013    -2.657294    -2.657294    -2.398564
    -2.398564    -2.503193    -2.503193    -2.843825    -2.843825    -3.238184    -3.238184    -3.485977
    -3.485977    -3.409304    -1.409304    -0.889318    -0.889318     0.107451     0.107451     1.517912
     1.517912     3.188555     3.188555     4.898038     4.898038     6.392510    -5.118865    -4.082459
    -4.082459    -3.317881    -3.317881    -2.915600    -2.915600    -2.877645    -2.877645    -3.120210
    -3.120210    -3.492091    -3.492091    -3.805608    -3.805608    -3.874447    -3.874447    -3.551648
    -1.551648    -0.760925    -0.760925     0.484381     0.484381     2.078205     2.078205     3.835331
     3.835331     5.519463     5.519463     6.881135    -5.118865    -4.082459    -4.082459    -3.317881
    -3.317881    -2.915600    -2.915600    -2.877645    -2.877645    -3.120210    -3.120210    -3.492091
    -3.492091    -3.805608    -3.805608    -3.874447    -3.874447    -3.551648    -1.551648    -0.760925
    -0.760925     0.484381     0.484381     2.078205     2.078205     3.835331     3.835331     5.519463
     5.519463     6.881135    -4.785247    -4.063771    -4.063771    -3.617354    -3.617354    -3.481452
    -3.481452    -3.612036    -3.612036    -3.896157    -3.896157    -4.175426    -4.175426    -4.278175
    -4.278175    -4.054536    -4.054536    -3.408120    -1.408120    -0.318596    -0.318596     1.149026
     1.149026     2.850245     2.850245     4.581272     4.581272     6.110326     6.110326     7.214753
    -4.785247    -4.063771    -4.063771    -3.617354    -3.617354    -3.481452    -3.481452    -3.612036
    -3.612036    -3.896157    -3.896157    -4.175426    -4.175426    -4.278175    -4.278175    -4.054536
    -4.054536    -3.408120    -1.408120    -0.318596    -0.318596     1.149026     1.149026     2.850245
     2.850245     4.581272     4.581272     6.110326     6.110326     7.214753    -4.539350    -4.152440
    -4.152440    -4.025258    -4.025258    -4.138060    -4.138060    -4.403815    -4.403815    -4.686201
    -4.686201    -4.827129    -4.827129    -4.678852    -4.678852    -4.134905    -4.134905    -3.154286
    -1.154286     0.225551     0.225551     1.889399     1.889399     3.658825     3.658825     5.318250
     5.318250     6.648271     6.648271     7.460650    -4.539350    -4.152440    -4.152440    -4.025258
    -4.025258    -4.138060    -4.138060    -4.403815    -4.403815    -4.686201    -4.686201    -4.827129
    -4.827129    -4.678852    -4.678852    -4.134905    -1.134905    -0.154286     1.845714     3.225551
     3.225551     4.889399     4.889399     6.658825     6.658825     8.318250     8.318250     9.648271
     9.648271    10.460650    -4.316061    -4.209203    -4.209203    -4.352257    -4.352257    -4.678754
    -4.678754    -5.064713    -5.064713    -5.353028    -5.353028    -5.384585    -5.384585    -5.030547
    -5.030547    -4.220029    -1.220029     0.041881     2.041881     3.669090     3.669090     5.503617
     5.503617     7.337520     7.337520     8.944068     8.944068    10.113002    10.113002    10.683939
    -4.316061    -4.209203    -4.209203    -4.352257    -4.352257    -4.678754    -4.678754    -5.064713
    -5.064713    -5.353028    -5.353028    -5.384585    -5.384585    -5.030547    -5.030547    -4.220029
    -1.220029     0.041881     2.041881     3.669090     3.669090     5.503617     5.503617     7.337520
     7.337520     8.944068     8.944068    10.113002    10.113002    10.683939    -4.105483    -4.196496
    -4.196496    -4.539619    -4.539619    -5.033789    -5.033789    -5.526031    -5.526031    -5.840863
    -5.840863    -5.814586    -5.814586    -5.328364    -5.328364    -4.334165    -1.334165     0.131160
     2.131160     3.946347     3.946347     5.920912     5.920912     7.822698     7.822698     9.413238
     9.413238    10.485041    10.485041    10.894517    -4.105483    -4.196496    -4.196496    -4.539619
    -4.539619    -5.033789    -5.033789    -5.526031    -5.526031    -5.840863    -5.840863    -5.814586
    -5.814586    -5.328364    -5.328364    -4.334165    -1.334165     0.131160     2.131160     3.946347
     3.946347     5.920912     5.920912     7.822698     7.822698     9.413238     9.413238    10.485041
    10.485041    10.894517    -3.966374    -4.203318    -4.203318    -4.691193    -4.691193    -5.303906
    -5.303906    -5.867986    -5.867986    -6.195529    -6.195529    -6.120637    -6.120637    -5.532882
    -5.532882    -4.401786    -1.401786     0.212127     2.212127     4.161903     4.161903     6.233785
     6.233785     8.178790     8.178790     9.750977     9.750977    10.746029    10.746029    11.033626
    -1.966374    -2.203318    -2.203318    -2.691193    -2.691193    -3.303906    -3.303906    -3.867986
    -3.867986    -4.195529    -4.195529    -4.120637    -4.120637    -3.532882    -3.532882    -2.401786
     0.598214     2.212127     2.212127     4.161903     4.161903     6.233785     6.233785     8.178790
     8.178790     9.750977     9.750977    10.746029    10.746029    11.033626    -1.990788    -2.382811
    -2.382811    -2.994729    -2.994729    -3.679001    -3.679001    -4.249782    -4.249782    -4.518011
    -4.518011    -4.328045    -4.328045    -3.589352    -3.589352    -2.297555     0.702445     2.459037
     2.459037     4.508798     4.508798     6.620685     6.620685     8.538796     8.538796    10.021841
    10.021841    10.880915    10.880915    11.009212    -1.990788    -2.382811    -2.382811    -2.994729
    -2.994729    -3.679001    -3.679001    -4.249782    -4.249782    -4.518011    -4.518011    -4.328045
    -4.328045    -3.589352    -3.589352    -2.297555     0.702445     2.459037     2.459037     4.508798
     4.508798     6.620685     6.620685     8.538796     8.538796    10.021841    10.021841    10.880915
    10.880915    11.009212    -2.243158    -2.844030    -2.844030    -3.585047    -3.585047    -4.296347
    -4.296347    -4.787412    -4.787412    -4.882963    -4.882963    -4.457216    -4.457216    -3.460407
    -3.460407    -1.932790     1.067210     2.996552     2.996552     5.126121     5.126121     7.211075
     7.211075     9.000169     9.000169    10.274422    10.274422    10.881031    10.881031    10.756842
    -2.243158    -2.844030    -2.844030    -3.585047    -3.585047    -4.296347    -4.296347    -4.787412
    -4.787412    -4.882963    -4.882963    -4.457216    -4.457216    -3.460407    -3.460407    -1.932790
     1.067210     2.996552     2.996552     5.126121     5.126121     7.211075     7.211075     9.000169
     9.000169    10.274422    10.274422    10.881031    10.881031    10.756842    -2.714138    -3.569821
    -3.569821    -4.440154    -4.440154    -5.132914    -5.132914    -5.460788    -5.460788    -5.276716
    -5.276716    -4.503262    -4.503262    -3.150785    -3.150785    -1.321036     1.678964     3.804660
     3.804660     5.990854     5.990854     7.982913     7.982913     9.545654     9.545654    10.499234
    10.499234    10.746298    10.746298    10.285862    -2.714138    -3.569821    -3.569821    -4.440154
    -4.440154    -5.132914    -5.132914    -5.460788    -5.460788    -5.276716    -5.276716    -4.503262
    -4.503262    -3.150785    -3.150785    -1.321036     1.678964     3.804660     3.804660     5.990854
     5.990854     7.982913     7.982913     9.545654     9.545654    10.499234    10.499234    10.746298
    10.746298    10.285862    -3.319896    -4.415583    -4.415583    -5.379681    -5.379681    -6.003753
    -6.003753    -6.112364    -6.112364    -5.596364    -5.596364    -4.435713    -4.435713    -2.707718