-- The following file was written from MATLAB using the MRST toolbox.

SPECGRID
30 30 10 1 F
/

COORD
     0.000000     0.000000    -5.028508     0.000000     0.000000    94.935423
   100.000000     0.000000    -4.321405   100.000000     0.000000    95.593064
   200.000000     0.000000    -3.588282   200.000000     0.000000    96.280464
   300.000000     0.000000    -2.858498   300.000000     0.000000    96.970260
   400.000000     0.000000    -2.159514   400.000000     0.000000    97.636742
   500.000000     0.000000    -1.515734   500.000000     0.000000    98.256923
   600.000000     0.000000    -0.947516   600.000000     0.000000    98.811479
   700.000000     0.000000    -0.470357   700.000000     0.000000    99.285508
   800.000000     0.000000    -0.094326   800.000000     0.000000    99.669079
   900.000000     0.000000     0.176262   900.000000     0.000000    99.957548
  1000.000000     0.000000     0.342900  1000.000000     0.000000   100.151627
  1100.000000     0.000000     0.412681  1100.000000     0.000000   100.257207
  1200.000000     0.000000     0.397826  1200.000000     0.000000   100.284945
  1300.000000     0.000000     0.314984  1300.000000     0.000000   100.249631
  1400.000000     0.000000     0.184332  1400.000000     0.000000   100.169363
  1500.000000     0.000000     0.028508  1500.000000     0.000000   100.064577
  1600.000000     0.000000    -0.128562  1600.000000     0.000000    99.956968
  1700.000000     0.000000    -0.262898  1700.000000     0.000000    99.868357
  1800.000000     0.000000    -0.351699  1800.000000     0.000000    99.819542
  1900.000000     0.000000    -0.374530  1900.000000     0.000000    99.829214
  2000.000000     0.000000    -0.314393  2000.000000     0.000000    99.912950
  2100.000000     0.000000    -0.158643  2100.000000     0.000000   100.082362
  2200.000000     0.000000     0.100286  2200.000000     0.000000   100.344421
  2300.000000     0.000000     0.464397  2300.000000     0.000000   100.700992
  2400.000000     0.000000     0.929897  2400.000000     0.000000   101.148611
  2500.000000     0.000000     1.487227  2500.000000     0.000000   101.678500
  2600.000000     0.000000     2.121363  2600.000000     0.000000   102.276837
  2700.000000     0.000000     2.812372  2700.000000     0.000000   102.925252
  2800.000000     0.000000     3.536196  2800.000000     0.000000   103.601548
  2900.000000     0.000000     4.265635  2900.000000     0.000000   104.280604
  3000.000000     0.000000     4.971492  3000.000000     0.000000   104.935423
     0.000000   100.000000    -4.725752     0.000000   100.000000    95.269006
   100.000000   100.000000    -4.007654   100.000000   100.000000    95.914360
   200.000000   100.000000    -3.277248   200.000000   100.000000    96.575431
   300.000000   100.000000    -2.563775   300.000000   100.000000    97.226006
   400.000000   100.000000    -1.893982   400.000000   100.000000    97.842090
   500.000000   100.000000    -1.290999   500.000000   100.000000    98.402898
   600.000000   100.000000    -0.773400   600.000000   100.000000    98.891701
   700.000000   100.000000    -0.354469   700.000000   100.000000    99.296472
   800.000000   100.000000    -0.041732   800.000000   100.000000    99.610305
   900.000000   100.000000     0.163265   900.000000   100.000000    99.831605
  1000.000000   100.000000     0.264880  1000.000000   100.000000    99.964018
  1100.000000   100.000000     0.273047  1100.000000   100.000000   100.016133
  1200.000000   100.000000     0.202680  1200.000000   100.000000   100.000942
  1300.000000   100.000000     0.072856  1300.000000   100.000000    99.935111
  1400.000000   100.000000    -0.094197  1400.000000   100.000000    99.838072
  1500.000000   100.000000    -0.274248  1500.000000   100.000000    99.730994
  1600.000000   100.000000    -0.442313  1600.000000   100.000000    99.635672
  1700.000000   100.000000    -0.573932  1700.000000   100.000000    99.573390
  1800.000000   100.000000    -0.646422  1800.000000   100.000000    99.563796
  1900.000000   100.000000    -0.640062  1900.000000   100.000000    99.623866
  2000.000000   100.000000    -0.539128  2000.000000   100.000000    99.766975
  2100.000000   100.000000    -0.332759  2100.000000   100.000000   100.002140
  2200.000000   100.000000    -0.015602  2200.000000   100.000000   100.333457
  2300.000000   100.000000     0.411803  2300.000000   100.000000   100.759766
  2400.000000   100.000000     0.942894  2400.000000   100.000000   101.274554
  2500.000000   100.000000     1.565247  2500.000000   100.000000   101.866109
  2600.000000   100.000000     2.260998  2600.000000   100.000000   102.517911
  2700.000000   100.000000     3.007518  2700.000000   100.000000   103.209255
  2800.000000   100.000000     3.778324  2800.000000   100.000000   103.916069
  2900.000000   100.000000     4.544164  2900.000000   100.000000   104.611895
  3000.000000   100.000000     5.274248  3000.000000   100.000000   105.269006
     0.000000   200.000000    -4.419630     0.000000   200.000000    95.606862
   100.000000   200.000000    -3.710614   100.000000   200.000000    96.232430
   200.000000   200.000000    -3.002272   200.000000   200.000000    96.859813
   300.000000   200.000000    -2.322881   300.000000   200.000000    97.464272
   400.000000   200.000000    -1.697697   400.000000   200.000000    98.023826
   500.000000   200.000000    -1.147903   500.000000   200.000000    98.520161
   600.000000   200.000000    -0.689746   600.000000   200.000000    98.939368
   700.000000   200.000000    -0.333914   700.000000   200.000000    99.272458
   800.000000   200.000000    -0.085173   800.000000   200.000000    99.515660
   900.000000   200.000000     0.057725   900.000000   200.000000    99.670465
  1000.000000   200.000000     0.101854  1000.000000   200.000000    99.743427
  1100.000000   200.000000     0.059660  1100.000000   200.000000    99.745730
  1200.000000   200.000000    -0.051741  1200.000000   200.000000    99.692546
  1300.000000   200.000000    -0.211481  1300.000000   200.000000    99.602200
  1400.000000   200.000000    -0.396021  1400.000000   200.000000    99.495196
  1500.000000   200.000000    -0.580370  1500.000000   200.000000    99.393138
  1600.000000   200.000000    -0.739353  1600.000000   200.000000    99.317603
  1700.000000   200.000000    -0.848908  1700.000000   200.000000    99.289008
  1800.000000   200.000000    -0.887317  1800.000000   200.000000    99.325531
  1900.000000   200.000000    -0.836347  1900.000000   200.000000    99.442130
  2000.000000   200.000000    -0.682224  2000.000000   200.000000    99.649712
  2100.000000   200.000000    -0.416413  2100.000000   200.000000    99.954474
  2200.000000   200.000000    -0.036157  2200.000000   200.000000   100.357471
  2300.000000   200.000000     0.455244  2300.000000   200.000000   100.854411
  2400.000000   200.000000     1.048434  2400.000000   200.000000   101.435694
  2500.000000   200.000000     1.728273  2500.000000   200.000000   102.086700
  2600.000000   200.000000     2.474384  2600.000000   200.000000   102.788314
  2700.000000   200.000000     3.261939  2700.000000   200.000000   103.517651
  2800.000000   200.000000     4.062660  2800.000000   200.000000   104.248979
  2900.000000   200.000000     4.845989  2900.000000   200.000000   104.954771
  3000.000000   200.000000     5.580370  3000.000000   200.000000   105.606862
     0.000000   300.000000    -4.112844     0.000000   300.000000    95.940801
   100.000000   300.000000    -3.434168   100.000000   300.000000    96.539753
   200.000000   300.000000    -2.768248   200.000000   300.000000    97.127089
   300.000000   300.000000    -2.141507   300.000000   300.000000    97.679820
   400.000000   300.000000    -1.576901   400.000000   300.000000    98.178225
   500.000000   300.000000    -1.092963   500.000000   300.000000    98.606664
   600.000000   300.000000    -0.703064   600.000000   300.000000    98.954192
   700.000000   300.000000    -0.414907   700.000000   300.000000    99.214957
   800.000000   300.000000    -0.230303   800.000000   300.000000    99.388347
   900.000000   300.000000    -0.145198   900.000000   300.000000    99.478904
  1000.000000   300.000000    -0.149993  1000.000000   300.000000    99.495989
  1100.000000   300.000000    -0.230104  1100.000000   300.000000    99.453231
  1200.000000   300.000000    -0.366758  1200.000000   300.000000    99.367769
  1300.000000   300.000000    -0.537983  1300.000000   300.000000    99.259339
  1400.000000   300.000000    -0.719740  1400.000000   300.000000    99.149236
  1500.000000   300.000000    -0.887156  1500.000000   300.000000    99.059199
  1600.000000   300.000000    -1.015799  1600.000000   300.000000    99.010279
  1700.000000   300.000000    -1.082932  1700.000000   300.000000    99.021731
  1800.000000   300.000000    -1.068690  1800.000000   300.000000    99.109983
  1900.000000   300.000000    -0.957143  1900.000000   300.000000    99.287731
  2000.000000   300.000000    -0.737164  2000.000000   300.000000    99.563209
  2100.000000   300.000000    -0.403095  2100.000000   300.000000    99.939649
  2200.000000   300.000000     0.044836  2200.000000   300.000000   100.414972
  2300.000000   300.000000     0.600374  2300.000000   300.000000   100.981724
  2400.000000   300.000000     1.251356  2400.000000   300.000000   101.627255
  2500.000000   300.000000     1.980120  2500.000000   300.000000   102.334138
  2600.000000   300.000000     2.764148  2600.000000   300.000000   103.080813
  2700.000000   300.000000     3.576956  2700.000000   300.000000   103.842428
  2800.000000   300.000000     4.389163  2800.000000   300.000000   104.591840
  2900.000000   300.000000     5.169707  2900.000000   300.000000   105.300732
  3000.000000   300.000000     5.887156  3000.000000   300.000000   105.940801
     0.000000   400.000000    -3.809316     0.000000   400.000000    96.262206
   100.000000   400.000000    -3.180803   100.000000   400.000000    96.828505
   200.000000   400.000000    -2.576119   200.000000   400.000000    97.370568
   300.000000   400.000000    -2.019011   300.000000   400.000000    97.867384
   400.000000   400.000000    -1.529392   400.000000   400.000000    98.301678
   500.000000   400.000000    -1.122517   500.000000   400.000000    98.660609
   600.000000   400.000000    -0.808389   600.000000   400.000000    98.936273
   700.000000   400.000000    -0.591401   700.000000   400.000000    99.125956
   800.000000   400.000000    -0.470250   800.000000   400.000000    99.232155
   900.000000   400.000000    -0.438113   900.000000   400.000000    99.262346
  1000.000000   400.000000    -0.483074  1000.000000   400.000000    99.228530
  1100.000000   400.000000    -0.588794  1100.000000   400.000000    99.146561
  1200.000000   400.000000    -0.735380  1200.000000   400.000000    99.035290
  1300.000000   400.000000    -0.900427  1300.000000   400.000000    98.915582
  1400.000000   400.000000    -1.060165  1400.000000   400.000000    98.809225
  1500.000000   400.000000    -1.190684  1500.000000   400.000000    98.737794
  1600.000000   400.000000    -1.269164  1600.000000   400.000000    98.721528
  1700.000000   400.000000    -1.275060  1700.000000   400.000000    98.778253
  1800.000000   400.000000    -1.191186  1800.000000   400.000000    98.922418
  1900.000000   400.000000    -1.004652  1900.000000   400.000000    99.164278
  2000.000000   400.000000    -0.707610  2000.000000   400.000000    99.509264
  2100.000000   400.000000    -0.297770  2100.000000   400.000000    99.957568
  2200.000000   400.000000     0.221330  2200.000000   400.000000   100.503973
  2300.000000   400.000000     0.840321  2300.000000   400.000000   101.137917
  2400.000000   400.000000     1.544272  2400.000000   400.000000   101.843813
  2500.000000   400.000000     2.313201  2500.000000   400.000000   102.601597
  2600.000000   400.000000     3.122838  2600.000000   400.000000   103.387484
  2700.000000   400.000000     3.945578  2700.000000   400.000000   104.174908
  2800.000000   400.000000     4.751607  2800.000000   400.000000   104.935597
  2900.000000   400.000000     5.510132  2900.000000   400.000000   105.640743
  3000.000000   400.000000     6.190684  3000.000000   400.000000   106.262206
     0.000000   500.000000    -3.514052     0.000000   500.000000    96.562980
   100.000000   500.000000    -2.951677   100.000000   500.000000    97.091408
   200.000000   500.000000    -2.423146   200.000000   500.000000    97.584109
   300.000000   500.000000    -1.948876   300.000000   500.000000    98.022232
   400.000000   500.000000    -1.545159   400.000000   500.000000    98.391064
   500.000000   500.000000    -1.223499   500.000000   500.000000    98.680627
   600.000000   500.000000    -0.990171   600.000000   500.000000    98.886047
   700.000000   500.000000    -0.846039   700.000000   500.000000    99.007682
   800.000000   500.000000    -0.786615   800.000000   500.000000    99.051002
   900.000000   500.000000    -0.802378   900.000000   500.000000    99.026231
  1000.000000   500.000000    -0.879320  1000.000000   500.000000    98.947773
  1100.000000   500.000000    -0.999702  1100.000000   500.000000    98.833432
  1200.000000   500.000000    -1.142992  1200.000000   500.000000    98.703474
  1300.000000   500.000000    -1.286928  1300.000000   500.000000    98.579582
  1400.000000   500.000000    -1.408662  1400.000000   500.000000    98.483724
  1500.000000   500.000000    -1.485948  1500.000000   500.000000    98.437020
  1600.000000   500.000000    -1.498290  1600.000000   500.000000    98.458625
  1700.000000   500.000000    -1.428034  1700.000000   500.000000    98.564711
  1800.000000   500.000000    -1.261322  1800.000000   500.000000    98.767570
  1900.000000   500.000000    -0.988885  1900.000000   500.000000    99.074892
  2000.000000   500.000000    -0.606628  2000.000000   500.000000    99.489246
  2100.000000   500.000000    -0.115988  2100.000000   500.000000   100.007794
  2200.000000   500.000000     0.475968  2200.000000   500.000000   100.622247
  2300.000000   500.000000     1.156686  2300.000000   500.000000   101.319070
  2400.000000   500.000000     1.908537  2400.000000   500.000000   102.079928
  2500.000000   500.000000     2.709447  2500.000000   500.000000   102.882354
  2600.000000   500.000000     3.533746  2600.000000   500.000000   103.700613
  2700.000000   500.000000     4.353190  2700.000000   500.000000   104.506724
  2800.000000   500.000000     5.138107  2800.000000   500.000000   105.271598
  2900.000000   500.000000     5.858630  2900.000000   500.000000   105.966243
  3000.000000   500.000000     6.485948  3000.000000   500.000000   106.562980
     0.000000   600.000000    -3.232793     0.000000   600.000000    96.836431
   100.000000   600.000000    -2.746886   100.000000   600.000000    97.322527
   200.000000   600.000000    -2.303773   200.000000   600.000000    97.762795
   300.000000   600.000000    -1.920139   300.000000   600.000000    98.140676
   400.000000   600.000000    -1.608315   400.000000   600.000000    98.444089
   500.000000   600.000000    -1.375786   500.000000   600.000000    98.665916
   600.000000   600.000000    -1.224934   600.000000   600.000000    98.804244
   700.000000   600.000000    -1.153018   700.000000   600.000000    98.862361
   800.000000   600.000000    -1.152393   800.000000   600.000000    98.848513
   900.000000   600.000000    -1.210970   900.000000   600.000000    98.775426
  1000.000000   600.000000    -1.312866  1000.000000   600.000000    98.659613
  1100.000000   600.000000    -1.439256  1100.000000   600.000000    98.520509
  1200.000000   600.000000    -1.569343  1200.000000   600.000000    98.379466
  1300.000000   600.000000    -1.681442  1300.000000   600.000000    98.258649
  1400.000000   600.000000    -1.754098  1400.000000   600.000000    98.179893
  1500.000000   600.000000    -1.767207  1500.000000   600.000000    98.163569
  1600.000000   600.000000    -1.703081  1600.000000   600.000000    98.227506
  1700.000000   600.000000    -1.547406  1700.000000   600.000000    98.386025
  1800.000000   600.000000    -1.290058  1800.000000   600.000000    98.649126
  1900.000000   600.000000    -0.925729  1900.000000   600.000000    99.021867
  2000.000000   600.000000    -0.454341  2000.000000   600.000000    99.503957
  2100.000000   600.000000     0.118775  2100.000000   600.000000   100.089598
  2200.000000   600.000000     0.782947  2200.000000   600.000000   100.767568
  2300.000000   600.000000     1.522465  2300.000000   600.000000   101.521558
  2400.000000   600.000000     2.317128  2400.000000   600.000000   102.330733
  2500.000000   600.000000     3.142993  2500.000000   600.000000   103.170515
  2600.000000   600.000000     3.973300  2600.000000   600.000000   104.013535
  2700.000000   600.000000     4.779541  2700.000000   600.000000   104.830731
  2800.000000   600.000000     5.532622  2800.000000   600.000000   105.592530
  2900.000000   600.000000     6.204065  2900.000000   600.000000   106.270074
  3000.000000   600.000000     6.767207  3000.000000   600.000000   106.836431
     0.000000   700.000000    -2.971519     0.000000   700.000000    97.077926
   100.000000   700.000000    -2.565880   100.000000   700.000000    97.517859
   200.000000   700.000000    -2.210945   200.000000   700.000000    97.903427
   300.000000   700.000000    -1.919546   300.000000   700.000000    98.220461
   400.000000   700.000000    -1.699983   400.000000   700.000000    98.459541
   500.000000   700.000000    -1.555709   500.000000   700.000000    98.616359
   600.000000   700.000000    -1.485248   600.000000   700.000000    98.691844
   700.000000   700.000000    -1.482346   700.000000   700.000000    98.692031
   800.000000   700.000000    -1.536343   800.000000   700.000000    98.627697
   900.000000   700.000000    -1.632759   900.000000   700.000000    98.513774
  1000.000000   700.000000    -1.754063  1000.000000   700.000000    98.368561
  1100.000000   700.000000    -1.880576  1100.000000   700.000000    98.212777
  1200.000000   700.000000    -1.991500  1200.000000   700.000000    98.068504
  1300.000000   700.000000    -2.065985  1300.000000   700.000000    97.958047
  1400.000000   700.000000    -2.084220  1400.000000   700.000000    97.902790
  1500.000000   700.000000    -2.028481  1500.000000   700.000000    97.922074
  1600.000000   700.000000    -1.884088  1600.000000   700.000000    98.032174
  1700.000000   700.000000    -1.640235  1700.000000   700.000000    98.245393
  1800.000000   700.000000    -1.290652  1800.000000   700.000000    98.569341
  1900.000000   700.000000    -0.834061  1900.000000   700.000000    99.006415
  2000.000000   700.000000    -0.274418  2000.000000   700.000000    99.553514
  2100.000000   700.000000     0.379089  2100.000000   700.000000   100.201997
  2200.000000   700.000000     1.112275  2200.000000   700.000000   100.937898
  2300.000000   700.000000     1.906414  2300.000000   700.000000   101.742374
  2400.000000   700.000000     2.738918  2400.000000   700.000000   102.592385
  2500.000000   700.000000     3.584190  2500.000000   700.000000   103.461566
  2600.000000   700.000000     4.414620  2600.000000   700.000000   104.321267
  2700.000000   700.000000     5.201697  2700.000000   700.000000   105.141693
  2800.000000   700.000000     5.917164  2800.000000   700.000000   105.893132
  2900.000000   700.000000     6.534187  2900.000000   700.000000   106.547178
  3000.000000   700.000000     7.028481  3000.000000   700.000000   107.077926
     0.000000   800.000000    -2.735885     0.000000   800.000000    97.285232
   100.000000   800.000000    -2.407951   100.000000   800.000000    97.675634
   200.000000   800.000000    -2.137623   200.000000   800.000000    98.004777
   300.000000   800.000000    -1.934036   300.000000   800.000000    98.260955
   400.000000   800.000000    -1.801651   400.000000   800.000000    98.437409
   500.000000   800.000000    -1.740112   500.000000   800.000000    98.532570
   600.000000   800.000000    -1.744327   600.000000   800.000000    98.550058
   700.000000   800.000000    -1.804777   700.000000   800.000000    98.498446
   800.000000   800.000000    -1.908035   800.000000   800.000000    98.390773
   900.000000   800.000000    -2.037468   900.000000   800.000000    98.243866
  1000.000000   800.000000    -2.174100  1000.000000   800.000000    98.077465
  1100.000000   800.000000    -2.297584  1100.000000   800.000000    97.913217
  1200.000000   800.000000    -2.387253  1200.000000   800.000000    97.773570
  1300.000000   800.000000    -2.423187  1300.000000   800.000000    97.680630
  1400.000000   800.000000    -2.387261  1400.000000   800.000000    97.655014
  1500.000000   800.000000    -2.264115  1500.000000   800.000000    97.714768
  1600.000000   800.000000    -2.042017  1600.000000   800.000000    97.874399
  1700.000000   800.000000    -1.713556  1700.000000   800.000000    98.144044
  1800.000000   800.000000    -1.276162  1800.000000   800.000000    98.528847
  1900.000000   800.000000    -0.732393  1900.000000   800.000000    99.028546
  2000.000000   800.000000    -0.090015  2000.000000   800.000000    99.637303
  2100.000000   800.000000     0.638168  2100.000000   800.000000   100.343783
  2200.000000   800.000000     1.434706  2200.000000   800.000000   101.131483
  2300.000000   800.000000     2.278106  2300.000000   800.000000   101.979298
  2400.000000   800.000000     3.143627  2400.000000   800.000000   102.862292
  2500.000000   800.000000     4.004227  2500.000000   800.000000   103.752662
  2600.000000   800.000000     4.831628  2600.000000   800.000000   104.620827
  2700.000000   800.000000     5.597451  2700.000000   800.000000   105.436627
  2800.000000   800.000000     6.274367  2800.000000   800.000000   106.170549
  2900.000000   800.000000     6.837228  2900.000000   800.000000   106.794954
  3000.000000   800.000000     7.264115  3000.000000   800.000000   107.285232
     0.000000   900.000000    -2.530674     0.000000   900.000000    97.458464
   100.000000   900.000000    -2.272709   100.000000   900.000000    97.796270
   200.000000   900.000000    -2.078261   200.000000   900.000000    98.067544
   300.000000   900.000000    -1.953148   300.000000   900.000000    98.263111
   400.000000   900.000000    -1.898402   400.000000   900.000000    98.378860
   500.000000   900.000000    -1.910273   500.000000   900.000000    98.415873
   600.000000   900.000000    -1.980462   600.000000   900.000000    98.380315
   700.000000   900.000000    -2.096566   700.000000   900.000000    98.283074
   800.000000   900.000000    -2.242724   800.000000   900.000000    98.139186
   900.000000   900.000000    -2.400431   900.000000   900.000000    97.967060
  1000.000000   900.000000    -2.549472  1000.000000   900.000000    97.787537
  1100.000000   900.000000    -2.668961  1100.000000   900.000000    97.622837
  1200.000000   900.000000    -2.738404  1200.000000   900.000000    97.495431
  1300.000000   900.000000    -2.738765  1300.000000   900.000000    97.426887
  1400.000000   900.000000    -2.653472  1400.000000   900.000000    97.436757
  1500.000000   900.000000    -2.469326  1500.000000   900.000000    97.541536
  1600.000000   900.000000    -2.177259  1600.000000   900.000000    97.753763
  1700.000000   900.000000    -1.772919  1700.000000   900.000000    98.081276
  1800.000000   900.000000    -1.257050  1800.000000   900.000000    98.526691
  1900.000000   900.000000    -0.635642  1900.000000   900.000000    99.087096
  2000.000000   900.000000     0.080146  2000.000000   900.000000    99.754000
  2100.000000   900.000000     0.874303  2100.000000   900.000000   100.513526
  2200.000000   900.000000     1.726495  2200.000000   900.000000   101.346855
  2300.000000   900.000000     2.612796  2300.000000   900.000000   102.230885
  2400.000000   900.000000     3.506589  2400.000000   900.000000   103.139099
  2500.000000   900.000000     4.379599  2500.000000   900.000000   104.042591
  2600.000000   900.000000     5.203005  2600.000000   900.000000   104.911207
  2700.000000   900.000000     5.948601  2700.000000   900.000000   105.714767
  2800.000000   900.000000     6.589944  2800.000000   900.000000   106.424292
  2900.000000   900.000000     7.103439  2900.000000   900.000000   107.013210
  3000.000000   900.000000     7.469326  3000.000000   900.000000   107.458464
     0.000000  1000.000000    -2.359364     0.000000  1000.000000    97.599673
   100.000000  1000.000000    -2.160450   100.000000  1000.000000    97.881995
   200.000000  1000.000000    -2.029960   200.000000  1000.000000    98.094039
   300.000000  1000.000000    -1.970916   300.000000  1000.000000    98.229218
   400.000000  1000.000000    -1.981462   400.000000  1000.000000    98.286059
   500.000000  1000.000000    -2.054995   500.000000  1000.000000    98.268222
   600.000000  1000.000000    -2.180521   600.000000  1000.000000    98.184266
   700.000000  1000.000000    -2.343219   700.000000  1000.000000    98.047195
   800.000000  1000.000000    -2.525191   800.000000  1000.000000    97.873786
   900.000000  1000.000000    -2.706365   900.000000  1000.000000    97.683738
  1000.000000  1000.000000    -2.865505  1000.000000  1000.000000    97.498676
  1100.000000  1000.000000    -2.981279  1100.000000  1000.000000    97.341063
  1200.000000  1000.000000    -3.033357  1200.000000  1000.000000    97.233057
  1300.000000  1000.000000    -3.003463  1300.000000  1000.000000    97.195381
  1400.000000  1000.000000    -2.876347  1400.000000  1000.000000    97.246236
  1500.000000  1000.000000    -2.640636  1500.000000  1000.000000    97.400327
  1600.000000  1000.000000    -2.289517  1600.000000  1000.000000    97.668037
  1700.000000  1000.000000    -1.821220  1700.000000  1000.000000    98.054781
  1800.000000  1000.000000    -1.239282  1800.000000  1000.000000    98.560585
  1900.000000  1000.000000    -0.552582  1900.000000  1000.000000    99.179897
  2000.000000  1000.000000     0.224868  2000.000000  1000.000000    99.901651
  2100.000000  1000.000000     1.074362  2100.000000  1000.000000   100.709576
  2200.000000  1000.000000     1.973147  2200.000000  1000.000000   101.582734
  2300.000000  1000.000000     2.895262  2300.000000  1000.000000   102.496285
  2400.000000  1000.000000     3.812524  2400.000000  1000.000000   103.422420
  2500.000000  1000.000000     4.695632  2500.000000  1000.000000   104.331451
  2600.000000  1000.000000     5.515323  2600.000000  1000.000000   105.192982
  2700.000000  1000.000000     6.243555  2700.000000  1000.000000   105.977141
  2800.000000  1000.000000     6.854642  2800.000000  1000.000000   106.655799
  2900.000000  1000.000000     7.326314  2900.000000  1000.000000   107.203732
  3000.000000  1000.000000     7.640636  3000.000000  1000.000000   107.599673
     0.000000  1100.000000    -2.223878     0.000000  1100.000000    97.712141
   100.000000  1100.000000    -2.072360   100.000000  1100.000000    97.936213
   200.000000  1100.000000    -1.993117   200.000000  1100.000000    98.087636
   300.000000  1100.000000    -1.986929   300.000000  1100.000000    98.162474
   400.000000  1100.000000    -2.049632   400.000000  1100.000000    98.161893
   500.000000  1100.000000    -2.172343   500.000000  1100.000000    98.092058
   600.000000  1100.000000    -2.341917   600.000000  1100.000000    97.963805
   700.000000  1100.000000    -2.541609   700.000000  1100.000000    97.792072
   800.000000  1100.000000    -2.751906   800.000000  1100.000000    97.595151
   900.000000  1100.000000    -2.951496   900.000000  1100.000000    97.393768
  1000.000000  1100.000000    -3.118338  1000.000000  1100.000000    97.210045
  1100.000000  1100.000000    -3.230765  1100.000000  1100.000000    97.066384
  1200.000000  1100.000000    -3.268592  1200.000000  1100.000000    96.984337
  1300.000000  1100.000000    -3.214165  1300.000000  1100.000000    96.983488
  1400.000000  1100.000000    -3.053308  1400.000000  1100.000000    97.080432
  1500.000000  1100.000000    -2.776122  1500.000000  1100.000000    97.287859
  1600.000000  1100.000000    -2.377607  1600.000000  1100.000000    97.613820
  1700.000000  1100.000000    -1.858063  1700.000000  1100.000000    98.061184
  1800.000000  1100.000000    -1.223269  1800.000000  1100.000000    98.627328
  1900.000000  1100.000000    -0.484412  1900.000000  1100.000000    99.304063
  2000.000000  1100.000000     0.342216  2000.000000  1100.000000   100.077815
  2100.000000  1100.000000     1.235758  2100.000000  1100.000000   100.930037
  2200.000000  1100.000000     2.171538  2200.000000  1100.000000   101.837857
  2300.000000  1100.000000     3.121977  2300.000000  1100.000000   102.774920
  2400.000000  1100.000000     4.057655  2400.000000  1100.000000   103.712390
  2500.000000  1100.000000     4.948465  2500.000000  1100.000000   104.620082
  2600.000000  1100.000000     5.764809  2600.000000  1100.000000   105.467660
  2700.000000  1100.000000     6.478789  2700.000000  1100.000000   106.225861
  2800.000000  1100.000000     7.065344  2800.000000  1100.000000   106.867691
  2900.000000  1100.000000     7.503275  2900.000000  1100.000000   107.369535
  3000.000000  1100.000000     7.776122  3000.000000  1100.000000   107.712141
     0.000000  1200.000000    -2.124554     0.000000  1200.000000    97.799509