-- The following file was written from MATLAB using the MRST toolbox.

SPECGRID
5 5 2 1 F
/

COORD
     0.000000     0.000000    -4.870056     0.000000     0.000000    94.974064
   600.000000     0.000000    -1.045832   600.000000     0.000000    98.806714
  1200.000000     0.000000     0.178611  1200.000000     0.000000   100.243360
  1800.000000     0.000000    -0.388865  1800.000000     0.000000    99.798606
  2400.000000     0.000000     1.126142  2400.000000     0.000000   101.177257
  3000.000000     0.000000     5.129944  3000.000000     0.000000   104.974064
     0.000000   600.000000    -3.506746     0.000000   600.000000    96.751686
   600.000000   600.000000    -1.495565   600.000000   600.000000    98.807468
  1200.000000   600.000000    -1.462649  1200.000000   600.000000    98.466204
  1800.000000   600.000000    -0.953487  1800.000000   600.000000    98.699509
  2400.000000   600.000000     2.418446  2400.000000   600.000000   102.275134
  3000.000000   600.000000     6.493254  3000.000000   600.000000   106.751686
     0.000000  1200.000000    -1.839741     0.000000  1200.000000    97.897988
   600.000000  1200.000000    -1.936498   600.000000  1200.000000    97.720639
  1200.000000  1200.000000    -3.402166  1200.000000  1200.000000    96.648205
  1800.000000  1200.000000    -1.711241  1800.000000  1200.000000    98.662752
  2400.000000  1200.000000     3.889646  2400.000000  1200.000000   104.070416
  3000.000000  1200.000000     8.160259  3000.000000  1200.000000   107.897988
     0.000000  1800.000000    -2.373610     0.000000  1800.000000    97.792322
   600.000000  1800.000000    -4.300031   600.000000  1800.000000    95.951699
  1200.000000  1800.000000    -4.329040  1200.000000  1800.000000    95.660606
  1800.000000  1800.000000     0.079452  1800.000000  1800.000000    99.821323
  2400.000000  1800.000000     5.923230  2400.000000  1800.000000   105.774050
  3000.000000  1800.000000     7.626390  3000.000000  1800.000000   107.792322
     0.000000  2400.000000    -3.176797     0.000000  2400.000000    96.816991
   600.000000  2400.000000    -5.741160   600.000000  2400.000000    94.194394
  1200.000000  2400.000000    -4.416520  1200.000000  2400.000000    95.549862
  1800.000000  2400.000000     1.466515  1800.000000  2400.000000   101.510185
  2400.000000  2400.000000     6.867961  2400.000000  2400.000000   106.928569
  3000.000000  2400.000000     6.823203  3000.000000  2400.000000   106.816991
     0.000000  3000.000000    -4.870056     0.000000  3000.000000    94.974064
   600.000000  3000.000000    -6.752171   600.000000  3000.000000    93.100375
  1200.000000  3000.000000    -3.348100  1200.000000  3000.000000    96.716648
  1800.000000  3000.000000     3.137846  1800.000000  3000.000000   103.325317
  2400.000000  3000.000000     6.832481  2400.000000  3000.000000   106.883596
  3000.000000  3000.000000     5.129944  3000.000000  3000.000000   104.974064
/

ZCORN
    -6.870056    -3.045832    -3.045832    -1.821389    -1.821389    -2.388865    -0.388865     1.126142
     1.126142     5.129944    -5.506746    -3.495565    -3.495565    -3.462649    -3.462649    -2.953487
    -0.953487     2.418446     2.418446     6.493254    -5.506746    -3.495565    -3.495565    -3.462649
    -3.462649    -2.953487    -0.953487     2.418446     2.418446     6.493254    -3.839741    -3.936498
    -3.936498    -5.402166    -5.402166    -3.711241    -1.711241     3.889646     3.889646     8.160259
    -3.839741    -3.936498    -3.936498    -5.402166    -5.402166    -3.711241     1.288759     6.889646
     6.889646    11.160259    -4.373610    -6.300031    -6.300031    -6.329040    -6.329040    -1.920548
     3.079452     8.923230     8.923230    10.626390    -2.373610    -4.300031    -4.300031    -4.329040
    -4.329040     0.079452     3.079452     8.923230     8.923230    10.626390    -3.176797    -5.741160
    -5.741160    -4.416520    -4.416520     1.466515     4.466515     9.867961     9.867961     9.823203
    -3.176797    -5.741160    -5.741160    -4.416520    -4.416520     1.466515     4.466515     9.867961
     9.867961     9.823203    -4.870056    -6.752171    -6.752171    -3.348100    -3.348100     3.137846
     6.137846     9.832481     9.832481     8.129944    42.952315    46.655931    46.655931    48.171919
    48.171919    47.905236    49.905236    51.314598    51.314598    54.952315    44.723355    46.680449
    46.680449    46.416033    46.416033    46.795520    48.795520    52.384643    52.384643    56.723355
    44.723355    46.680449    46.680449    46.416033    46.416033    46.795520    48.795520    52.384643
    52.384643    56.723355    45.965576    46.076943    46.076943    44.800824    44.800824    46.400773
    48.400773    53.755884    53.755884    57.965576    45.965576    46.076943    46.076943    44.800824
    44.800824    46.400773    51.400773    56.755884    56.755884    60.965576    45.711292    43.502207
    43.502207    43.463834    43.463834    48.149203    53.149203    59.173463    59.173463    60.711292
    47.711292    45.502207    45.502207    45.463834    45.463834    50.149203    53.149203    59.173463
    59.173463    60.711292    46.880512    44.565384    44.565384    45.715626    45.715626    51.241642
    54.241642    59.596836    59.596836    59.880512    46.880512    44.565384    44.565384    45.715626
    45.715626    51.241642    54.241642    59.596836    59.596836    59.880512    44.952315    42.949592
    42.949592    46.645208    46.645208    53.431947    56.431947    60.020937    60.020937    57.952315
    42.952315    46.655931    46.655931    48.171919    48.171919    47.905236    49.905236    51.314598
    51.314598    54.952315    44.723355    46.680449    46.680449    46.416033    46.416033    46.795520
    48.795520    52.384643    52.384643    56.723355    44.723355    46.680449    46.680449    46.416033
    46.416033    46.795520    48.795520    52.384643    52.384643    56.723355    45.965576    46.076943
    46.076943    44.800824    44.800824    46.400773    48.400773    53.755884    53.755884    57.965576
    45.965576    46.076943    46.076943    44.800824    44.800824    46.400773    51.400773    56.755884
    56.755884    60.965576    45.711292    43.502207    43.502207    43.463834    43.463834    48.149203
    53.149203    59.173463    59.173463    60.711292    47.711292    45.502207    45.502207    45.463834
    45.463834    50.149203    53.149203    59.173463    59.173463    60.711292    46.880512    44.565384
    44.565384    45.715626    45.715626    51.241642    54.241642    59.596836    59.596836    59.880512
    46.880512    44.565384    44.565384    45.715626    45.715626    51.241642    54.241642    59.596836
    59.596836    59.880512    44.952315    42.949592    42.949592    46.645208    46.645208    53.431947
    56.431947    60.020937    60.020937    57.952315    92.974064    96.806714    96.806714    98.243360
    98.243360    97.798606    99.798606   101.177257   101.177257   104.974064    94.751686    96.807468
    96.807468    96.466204    96.466204    96.699509    98.699509   102.275134   102.275134   106.751686
    94.751686    96.807468    96.807468    96.466204    96.466204    96.699509    98.699509   102.275134
   102.275134   106.751686    95.897988    95.720639    95.720639    94.648205    94.648205    96.662752
    98.662752   104.070416   104.070416   107.897988    95.897988    95.720639    95.720639    94.648205
    94.648205    96.662752   101.662752   107.070416   107.070416   110.897988    95.792322    93.951699
    93.951699    93.660606    93.660606    97.821323   102.821323   108.774050   108.774050   110.792322
    97.792322    95.951699    95.951699    95.660606    95.660606    99.821323   102.821323   108.774050
   108.774050   110.792322    96.816991    94.194394    94.194394    95.549862    95.549862   101.510185
   104.510185   109.928569   109.928569   109.816991    96.816991    94.194394    94.194394    95.549862
    95.549862   101.510185   104.510185   109.928569   109.928569   109.816991    94.974064    93.100375
    93.100375    96.716648    96.716648   103.325317   106.325317   109.883596   109.883596   107.974064
/

ACTNUM
 0 0 0 0 0 0 1 1 1 1 1 1 1 1 1 1 1 1 1 1
 0 0 0 0 0 0 0 0 0 0 0 1 1 1 1 1 1 1 1 1
 1 1 1 1 1 0 0 0 0 0 /
