-- The following file was written from MATLAB using the MRST toolbox.

SPECGRID
10 10 5 1 F
/

COORD
     0.000000     0.000000    -4.886455     0.000000     0.000000    94.994825
   300.000000     0.000000    -3.044222   300.000000     0.000000    97.032296
   600.000000     0.000000    -1.390075   600.000000     0.000000    98.852453
   900.000000     0.000000    -0.354091   900.000000     0.000000    99.961811
  1200.000000     0.000000    -0.017743  1200.000000     0.000000   100.250868
  1500.000000     0.000000    -0.113545  1500.000000     0.000000   100.005175
  1800.000000     0.000000    -0.165976  1800.000000     0.000000    99.757506
  2100.000000     0.000000     0.283916  2100.000000     0.000000   100.041388
  2400.000000     0.000000     1.460250  2400.000000     0.000000   101.144348
  2700.000000     0.000000     3.227941  2700.000000     0.000000   102.959330
  3000.000000     0.000000     5.113545  3000.000000     0.000000   104.994825
     0.000000   300.000000    -3.916072     0.000000   300.000000    95.925052
   300.000000   300.000000    -2.400483   300.000000   300.000000    97.681126
   600.000000   300.000000    -1.318867   600.000000   300.000000    98.972055
   900.000000   300.000000    -0.882613   900.000000   300.000000    99.506501
  1200.000000   300.000000    -0.944118  1200.000000   300.000000    99.394559
  1500.000000   300.000000    -1.083928  1500.000000   300.000000    99.074948
  1800.000000   300.000000    -0.809714  1800.000000   300.000000    99.108676
  2100.000000   300.000000     0.212709  2100.000000   300.000000    99.921786
  2400.000000   300.000000     1.988772  2400.000000   300.000000   101.599658
  2700.000000   300.000000     4.154315  2700.000000   300.000000   103.815639
  3000.000000   300.000000     6.083928  3000.000000   300.000000   105.925052
     0.000000   600.000000    -3.253234     0.000000   600.000000    96.767295
   300.000000   600.000000    -1.894472   300.000000   600.000000    98.079447
   600.000000   600.000000    -1.162963   600.000000   600.000000    98.774309
   900.000000   600.000000    -1.136365   900.000000   600.000000    98.788219
  1200.000000   600.000000    -1.510602  1200.000000   600.000000    98.430101
  1500.000000   600.000000    -1.746766  1500.000000   600.000000    98.232705
  1800.000000   600.000000    -1.315725  1800.000000   600.000000    98.710355
  2100.000000   600.000000     0.056804  2100.000000   600.000000   100.119532
  2400.000000   600.000000     2.242524  2400.000000   600.000000   102.317940
  2700.000000   600.000000     4.720799  2700.000000   600.000000   104.780097
  3000.000000   600.000000     6.746766  3000.000000   600.000000   106.767295
     0.000000   900.000000    -2.740079     0.000000   900.000000    97.431485
   300.000000   900.000000    -1.678309   300.000000   900.000000    98.223964
   600.000000   900.000000    -1.326358   600.000000   900.000000    98.343951
   900.000000   900.000000    -1.616907   900.000000   900.000000    97.947370
  1200.000000   900.000000    -2.124740  1200.000000   900.000000    97.499935
  1500.000000   900.000000    -2.259921  1500.000000   900.000000    97.568515
  1800.000000   900.000000    -1.531889  1800.000000   900.000000    98.565839
  2100.000000   900.000000     0.220199  2100.000000   900.000000   100.549890
  2400.000000   900.000000     2.723066  2400.000000   900.000000   103.158789
  2700.000000   900.000000     5.334938  2700.000000   900.000000   105.710262
  3000.000000   900.000000     7.259921  3000.000000   900.000000   107.431485
     0.000000  1200.000000    -2.233533     0.000000  1200.000000    97.851970
   300.000000  1200.000000    -1.862181   300.000000  1200.000000    98.103500
   600.000000  1200.000000    -2.130416   600.000000  1200.000000    97.728552
   900.000000  1200.000000    -2.734028   900.000000  1200.000000    97.072096
  1200.000000  1200.000000    -3.128222  1200.000000  1200.000000    96.699113
  1500.000000  1200.000000    -2.766467  1500.000000  1200.000000    97.148030
  1800.000000  1200.000000    -1.348016  1800.000000  1200.000000    98.686303
  2100.000000  1200.000000     1.024257  2100.000000  1200.000000   101.165289
  2400.000000  1200.000000     3.840187  2400.000000  1200.000000   104.034063
  2700.000000  1200.000000     6.338420  2700.000000  1200.000000   106.511085
  3000.000000  1200.000000     7.766467  3000.000000  1200.000000   107.851970
     0.000000  1500.000000    -1.886455     0.000000  1500.000000    97.994825
   300.000000  1500.000000    -2.380526   300.000000  1500.000000    97.695991
   600.000000  1500.000000    -3.316193   600.000000  1500.000000    96.926335
   900.000000  1500.000000    -4.134311   900.000000  1500.000000    96.181590
  1200.000000  1500.000000    -4.208150  1200.000000  1500.000000    96.060461
  1500.000000  1500.000000    -3.113545  1500.000000  1500.000000    97.005175
  1800.000000  1500.000000    -0.829671  1800.000000  1500.000000    99.093811
  2100.000000  1500.000000     2.210035  2100.000000  1500.000000   101.967507
  2400.000000  1500.000000     5.240470  2400.000000  1500.000000   104.924569
  2700.000000  1500.000000     7.418348  2700.000000  1500.000000   107.149737
  3000.000000  1500.000000     8.113545  3000.000000  1500.000000   107.994825
     0.000000  1800.000000    -1.989954     0.000000  1800.000000    97.851170
   300.000000  1800.000000    -3.064179   300.000000  1800.000000    97.017431
   600.000000  1800.000000    -4.318867   600.000000  1800.000000    95.972055
   900.000000  1800.000000    -5.073020   900.000000  1800.000000    95.316094
  1200.000000  1800.000000    -4.724338  1200.000000  1800.000000    95.614338
  1500.000000  1800.000000    -3.010046  1500.000000  1800.000000    97.148830
  1800.000000  1800.000000    -0.146019  1800.000000  1800.000000    99.772372
  2100.000000  1800.000000     3.212709  2100.000000  1800.000000   102.921786
  2400.000000  1800.000000     6.179178  2400.000000  1800.000000   105.790065
  2700.000000  1800.000000     7.934536  2700.000000  1800.000000   107.595859
  3000.000000  1800.000000     8.010046  3000.000000  1800.000000   107.851170
     0.000000  2100.000000    -2.589539     0.000000  2100.000000    97.430991
   300.000000  2100.000000    -3.820591   300.000000  2100.000000    96.153329
   600.000000  2100.000000    -4.943183   600.000000  2100.000000    94.994089
   900.000000  2100.000000    -5.326772   900.000000  2100.000000    94.597812
  1200.000000  2100.000000    -4.510602  1200.000000  2100.000000    95.430101
  1500.000000  2100.000000    -2.410461  1500.000000  2100.000000    97.569009
  1800.000000  2100.000000     0.610393  1800.000000  2100.000000   100.636473
  2100.000000  2100.000000     3.837025  2100.000000  2100.000000   103.899753
  2400.000000  2100.000000     6.432930  2400.000000  2100.000000   106.508346
  2700.000000  2100.000000     7.720799  2700.000000  2100.000000   107.780097
  3000.000000  2100.000000     7.410461  3000.000000  2100.000000   107.430991
     0.000000  2400.000000    -3.403774     0.000000  2400.000000    96.767790
   300.000000  2400.000000    -4.678309   300.000000  2400.000000    95.223964
   600.000000  2400.000000    -5.516765   600.000000  2400.000000    94.153545
   900.000000  2400.000000    -5.397128   900.000000  2400.000000    94.167149
  1200.000000  2400.000000    -4.050859  1200.000000  2400.000000    95.573817
  1500.000000  2400.000000    -1.596226  1500.000000  2400.000000    98.232210
  1800.000000  2400.000000     1.468111  1800.000000  2400.000000   101.565839
  2100.000000  2400.000000     4.410606  2100.000000  2400.000000   104.740297
  2400.000000  2400.000000     6.503286  2400.000000  2400.000000   106.939010
  2700.000000  2400.000000     7.261057  2700.000000  2400.000000   107.636381
  3000.000000  2400.000000     6.596226  3000.000000  2400.000000   106.767790
     0.000000  2700.000000    -4.159651     0.000000  2700.000000    95.925852
   300.000000  2700.000000    -5.642402   300.000000  2700.000000    94.323279
   600.000000  2700.000000    -6.320823   600.000000  2700.000000    93.538145
   900.000000  2700.000000    -5.734028   900.000000  2700.000000    94.072096
  1200.000000  2700.000000    -3.791917  1200.000000  2700.000000    96.035417
  1500.000000  2700.000000    -0.840349  1500.000000  2700.000000    99.074148
  1800.000000  2700.000000     2.432204  1800.000000  2700.000000   102.466523
  2100.000000  2700.000000     5.214664  2100.000000  2700.000000   105.355696
  2400.000000  2700.000000     6.840187  2400.000000  2700.000000   107.034063
  2700.000000  2700.000000     7.002115  2700.000000  2700.000000   107.174780
  3000.000000  2700.000000     5.840349  3000.000000  2700.000000   105.925852
     0.000000  3000.000000    -4.886455     0.000000  3000.000000    94.994825
   300.000000  3000.000000    -6.570933   300.000000  3000.000000    93.505585
   600.000000  3000.000000    -7.096414   600.000000  3000.000000    93.146114
   900.000000  3000.000000    -6.060430   900.000000  3000.000000    94.255471
  1200.000000  3000.000000    -3.544455  1200.000000  3000.000000    96.724156
  1500.000000  3000.000000    -0.113545  1500.000000  3000.000000   100.005175
  1800.000000  3000.000000     3.360735  1800.000000  3000.000000   103.284218
  2100.000000  3000.000000     5.990255  2100.000000  3000.000000   105.747727
  2400.000000  3000.000000     7.166589  2400.000000  3000.000000   106.850687
  2700.000000  3000.000000     6.754653  2700.000000  3000.000000   106.486042
  3000.000000  3000.000000     5.113545  3000.000000  3000.000000   104.994825
/

ZCORN
    -6.886455    -5.044222    -5.044222    -3.390075    -3.390075    -2.354091    -2.354091    -2.017743
    -2.017743    -2.113545    -2.113545    -2.165976    -0.165976     0.283916     0.283916     1.460250
     1.460250     3.227941     3.227941     5.113545    -5.916072    -4.400483    -4.400483    -3.318867
    -3.318867    -2.882613    -2.882613    -2.944118    -2.944118    -3.083928    -3.083928    -2.809714
    -0.809714     0.212709     0.212709     1.988772     1.988772     4.154315     4.154315     6.083928
    -5.916072    -4.400483    -4.400483    -3.318867    -3.318867    -2.882613    -2.882613    -2.944118
    -2.944118    -3.083928    -3.083928    -2.809714    -0.809714     0.212709     0.212709     1.988772
     1.988772     4.154315     4.154315     6.083928    -5.253234    -3.894472    -3.894472    -3.162963
    -3.162963    -3.136365    -3.136365    -3.510602    -3.510602    -3.746766    -3.746766    -3.315725
    -1.315725     0.056804     0.056804     2.242524     2.242524     4.720799     4.720799     6.746766
    -5.253234    -3.894472    -3.894472    -3.162963    -3.162963    -3.136365    -3.136365    -3.510602
    -3.510602    -3.746766    -3.746766    -3.315725    -1.315725     0.056804     0.056804     2.242524
     2.242524     4.720799     4.720799     6.746766    -4.740079    -3.678309    -3.678309    -3.326358
    -3.326358    -3.616907    -3.616907    -4.124740    -4.124740    -4.259921    -4.259921    -3.531889
    -1.531889     0.220199     0.220199     2.723066     2.723066     5.334938     5.334938     7.259921
    -4.740079    -3.678309    -3.678309    -3.326358    -3.326358    -3.616907    -3.616907    -4.124740
    -4.124740    -4.259921    -1.259921    -0.531889     1.468111     3.220199     3.220199     5.723066
     5.723066     8.334938     8.334938    10.259921    -4.233533    -3.862181    -3.862181    -4.130416
    -4.130416    -4.734028    -4.734028    -5.128222    -5.128222    -4.766467    -1.766467    -0.348016
     1.651984     4.024257     4.024257     6.840187     6.840187     9.338420     9.338420    10.766467
    -4.233533    -3.862181    -3.862181    -4.130416    -4.130416    -4.734028    -4.734028    -5.128222
    -5.128222    -4.766467    -1.766467    -0.348016     1.651984     4.024257     4.024257     6.840187
     6.840187     9.338420     9.338420    10.766467    -3.886455    -4.380526    -4.380526    -5.316193
    -5.316193    -6.134311    -6.134311    -6.208150    -6.208150    -5.113545    -2.113545     0.170329
     2.170329     5.210035     5.210035     8.240470     8.240470    10.418348    10.418348    11.113545
    -1.886455    -2.380526    -2.380526    -3.316193    -3.316193    -4.134311    -4.134311    -4.208150
    -4.208150    -3.113545    -0.113545     2.170329     2.170329     5.210035     5.210035     8.240470
     8.240470    10.418348    10.418348    11.113545    -1.989954    -3.064179    -3.064179    -4.318867
    -4.318867    -5.073020    -5.073020    -4.724338    -4.724338    -3.010046    -0.010046     2.853981
     2.853981     6.212709     6.212709     9.179178     9.179178    10.934536    10.934536    11.010046
    -1.989954    -3.064179    -3.064179    -4.318867    -4.318867    -5.073020    -5.073020    -4.724338
    -4.724338    -3.010046    -0.010046     2.853981     2.853981     6.212709     6.212709     9.179178
     9.179178    10.934536    10.934536    11.010046    -2.589539    -3.820591    -3.820591    -4.943183
    -4.943183    -5.326772    -5.326772    -4.510602    -4.510602    -2.410461     0.589539     3.610393
     3.610393     6.837025     6.837025     9.432930     9.432930    10.720799    10.720799    10.410461
    -2.589539    -3.820591    -3.820591    -4.943183    -4.943183    -5.326772    -5.326772    -4.510602
    -4.510602    -2.410461     0.589539     3.610393     3.610393     6.837025     6.837025     9.432930
     9.432930    10.720799    10.720799    10.410461    -3.403774    -4.678309    -4.678309    -5.516765
    -5.516765    -5.397128    -5.397128    -4.050859    -4.050859    -1.596226     1.403774     4.468111
     4.468111     7.410606     7.410606     9.503286     9.503286    10.261057    10.261057     9.596226
    -3.403774    -4.678309    -4.678309    -5.516765    -5.516765    -5.397128    -5.397128    -4.050859
    -4.050859    -1.596226     1.403774     4.468111     4.468111     7.410606     7.410606     9.503286
     9.503286    10.261057    10.261057     9.596226    -4.159651    -5.642402    -5.642402    -6.320823
    -6.320823    -5.734028    -5.734028    -3.791917    -3.791917    -0.840349     2.159651     5.432204
     5.432204     8.214664     8.214664     9.840187     9.840187    10.002115    10.002115     8.840349
    -4.159651    -5.642402    -5.642402    -6.320823    -6.320823    -5.734028    -5.734028    -3.791917
    -3.791917    -0.840349     2.159651     5.432204     5.432204     8.214664     8.214664     9.840187
     9.840187    10.002115    10.002115     8.840349    -4.886455    -6.570933    -6.570933    -7.096414
    -7.096414    -6.060430    -6.060430    -3.544455    -3.544455    -0.113545     2.886455     6.360735
     6.360735     8.990255     8.990255    10.166589    10.166589     9.754653     9.754653     8.113545
    13.009588    15.031629    15.031629    16.836611    16.836611    17.936845    17.936845    18.226314
    18.226314    17.990412    17.990412    17.758173    19.758173    20.057230    20.057230    21.169314
    21.169314    22.983884    22.983884    25.009588    13.785593    15.324222    15.324222    16.534031
    16.534031    17.154666    17.154666    17.263303    17.263303    17.214407    17.214407    17.465580
    19.465580    20.359811    20.359811    21.951493    21.951493    23.946895    23.946895    25.785593
    13.785593    15.324222    15.324222    16.534031    16.534031    17.154666    17.154666    17.263303
    17.263303    17.214407    17.214407    17.465580    19.465580    20.359811    20.359811    21.951493
    21.951493    23.946895    23.946895    25.785593    14.666342    15.859535    15.859535    16.519437
    16.519437    16.595739    16.595739    16.373534    16.373534    16.333658    16.333658    16.930267
    18.930267    20.374404    20.374404    22.510419    22.510419    24.836663    24.836663    26.666342
    14.666342    15.859535    15.859535    16.519437    16.519437    16.595739    16.595739    16.373534
    16.373534    16.333658    16.333658    16.930267    18.930267    20.374404    20.374404    22.510419
    22.510419    24.836663    24.836663    26.666342    15.508551    16.444954    16.444954    16.624456
    16.624456    16.180245    16.180245    15.596231    15.596231    15.491449    15.491449    16.344848
    18.344848    20.269385    20.269385    22.925914    22.925914    25.613966    25.613966    27.508551
    15.508551    16.444954    16.444954    16.624456    16.624456    16.180245    16.180245    15.596231
    15.596231    15.491449    18.491449    19.344848    21.344848    23.269385    23.269385    25.925914
    25.925914    28.613966    28.613966    30.508551    16.000553    16.459992    16.459992    16.156786
    16.156786    15.408501    15.408501    14.815193    14.815193    14.999447    17.999447    19.329811
    21.329811    23.737056    23.737056    26.697658    26.697658    29.395004    29.395004    31.000553
    16.000553    16.459992    16.459992    16.156786    16.156786    15.408501    15.408501    14.815193
    14.815193    14.999447    17.999447    19.329811    21.329811    23.737056    23.737056    26.697658
    26.697658    29.395004    29.395004    31.000553    16.009588    15.695325    15.695325    14.910493
    14.910493    14.156624    14.156624    14.035907    14.035907    14.990412    17.990412    20.094478
    22.094478    24.983348    24.983348    27.949535    27.949535    30.174291    30.174291    31.009588
    18.009588    17.695325    17.695325    16.910493    16.910493    16.156624    16.156624    16.035907
    16.035907    16.990412    19.990412    22.094478    22.094478    24.983348    24.983348    27.949535
    27.949535    30.174291    30.174291    31.009588    17.711712    16.660527    16.660527    15.534031
    15.534031    14.964259    14.964259    15.483082    15.483082    17.288288    20.288288    23.129276
    23.129276    26.359811    26.359811    29.141899    29.141899    30.727115    30.727115    30.711712
    17.711712    16.660527    16.660527    15.534031    15.534031    14.964259    14.964259    15.483082
    15.483082    17.288288    20.288288    23.129276    23.129276    26.359811    26.359811    29.141899
    29.141899    30.727115    30.727115    30.711712    17.330038    15.933417    15.933417    14.739216
    14.739216    14.405333    14.405333    15.373534    15.373534    17.669962    20.669962    23.856386
    23.856386    27.154625    27.154625    29.700826    29.700826    30.836663    30.836663    30.330038
    17.330038    15.933417    15.933417    14.739216    14.739216    14.405333    14.405333    15.373534
    15.373534    17.669962    20.669962    23.856386    23.856386    27.154625    27.154625    29.700826
    29.700826    30.836663    30.836663    30.330038    16.844856    15.444954    15.444954    14.434050
    14.434050    14.400025    14.400025    15.670113    15.670113    18.155144    21.155144    24.344848
    24.344848    27.459792    27.459792    29.706134    29.706134    30.540085    30.540085    29.844856
    16.844856    15.444954    15.444954    14.434050    14.434050    14.400025    14.400025    15.670113
    15.670113    18.155144    21.155144    24.344848    24.344848    27.459792    27.459792    29.706134
    29.706134    30.540085    30.540085    29.844856    16.074434    14.679771    14.679771    13.966379
    13.966379    14.408501    14.408501    16.151498    16.151498    18.925566    21.925566    25.110031
    25.110031    27.927462    27.927462    29.697658    29.697658    30.058700    30.058700    29.074434
    16.074434    14.679771    14.679771    13.966379    13.966379    14.408501    14.408501    16.151498
    16.151498    18.925566    21.925566    25.110031    25.110031    27.927462    27.927462    29.697658
    29.697658    30.058700    30.058700    29.074434    15.009588    13.504918    13.504918    13.130272
    13.130272    14.230505    14.230505    16.699602    16.699602    19.990412    22.990412    26.284885
    26.284885    28.763569    28.763569    29.875653    29.875653    29.510596    29.510596    28.009588
    13.009588    15.031629    15.031629    16.836611    16.836611    17.936845    17.936845    18.226314
    18.226314    17.990412    17.990412    17.758173    19.758173    20.057230    20.057230    21.169314
    21.169314    22.983884    22.983884    25.009588    13.785593    15.324222    15.324222    16.534031
    16.534031    17.154666    17.154666    17.263303    17.263303    17.214407    17.214407    17.465580
    19.465580    20.359811    20.359811    21.951493    21.951493    23.946895    23.946895    25.785593
    13.785593    15.324222    15.324222    16.534031    16.534031    17.154666    17.154666    17.263303
    17.263303    17.214407    17.214407    17.465580    19.465580    20.359811    20.359811    21.951493
    21.951493    23.946895    23.946895    25.785593    14.666342    15.859535    15.859535    16.519437
    16.519437    16.595739    16.595739    16.373534    16.373534    16.333658    16.333658    16.930267
    18.930267    20.374404    20.374404    22.510419    22.510419    24.836663    24.836663    26.666342
    14.666342    15.859535    15.859535    16.519437    16.519437    16.595739    16.595739    16.373534
    16.373534    16.333658    16.333658    16.930267    18.930267    20.374404    20.374404    22.510419
    22.510419    24.836663    24.836663    26.666342    15.508551    16.444954    16.444954    16.624456
    16.624456    16.180245    16.180245    15.596231    15.596231    15.491449    15.491449    16.344848
    18.344848    20.269385    20.269385    22.925914    22.925914    25.613966    25.613966    27.508551
    15.508551    16.444954    16.444954    16.624456    16.624456    16.180245    16.180245    15.596231
    15.596231    15.491449    18.491449    19.344848    21.344848    23.269385    23.269385    25.925914
    25.925914    28.613966    28.613966    30.508551    16.000553    16.459992    16.459992    16.156786
    16.156786    15.408501    15.408501    14.815193    14.815193    14.999447    17.999447    19.329811
    21.329811    23.737056    23.737056    26.697658    26.697658    29.395004    29.395004    31.000553
    16.000553    16.459992    16.459992    16.156786    16.156786    15.408501    15.408501    14.815193
    14.815193    14.999447    17.999447    19.329811    21.329811    23.737056    23.737056    26.697658
    26.697658    29.395004    29.395004    31.000553    16.009588    15.695325    15.695325    14.910493
    14.910493    14.156624    14.156624    14.035907    14.035907    14.990412    17.990412    20.094478
    22.094478    24.983348    24.983348    27.949535    27.949535    30.174291    30.174291    31.009588
    18.009588    17.695325    17.695325    16.910493    16.910493    16.156624    16.156624    16.035907
    16.035907    16.990412    19.990412    22.094478    22.094478    24.983348    24.983348    27.949535
    27.949535    30.174291    30.174291    31.009588    17.711712    16.660527    16.660527    15.534031
    15.534031    14.964259    14.964259    15.483082    15.483082    17.288288    20.288288    23.129276
    23.129276    26.359811    26.359811    29.141899    29.141899    30.727115    30.727115    30.711712
    17.711712    16.660527    16.660527    15.534031    15.534031    14.964259    14.964259    15.483082
    15.483082    17.288288    20.288288    23.129276    23.129276    26.359811    26.359811    29.141899
    29.141899    30.727115    30.727115    30.711712    17.330038    15.933417    15.933417    14.739216
    14.739216    14.405333    14.405333    15.373534    15.373534    17.669962    20.669962    23.856386
    23.856386    27.154625    27.154625    29.700826    29.700826    30.836663    30.836663    30.330038
    17.330038    15.933417    15.933417    14.739216    14.739216    14.405333    14.405333    15.373534
    15.373534    17.669962    20.669962    23.856386    23.856386    27.154625    27.154625    29.700826
    29.700826    30.836663    30.836663    30.330038    16.844856    15.444954    15.444954    14.434050
    14.434050    14.400025    14.400025    15.670113    15.670113    18.155144    21.155144    24.344848
    24.344848    27.459792    27.459792    29.706134    29.706134    30.540085    30.540085    29.844856
    16.844856    15.444954    15.444954    14.434050    14.434050    14.400025    14.400025    15.670113
    15.670113    18.155144    21.155144    24.344848    24.344848    27.459792    27.459792    29.706134
    29.706134    30.540085    30.540085    29.844856    16.074434    14.679771    14.679771    13.966379
    13.966379    14.408501    14.408501    16.151498    16.151498    18.925566    21.925566    25.110031
    25.110031    27.927462    27.927462    29.697658    29.697658    30.058700    30.058700    29.074434
    16.074434    14.679771    14.679771    13.966379    13.966379    14.408501    14.408501    16.151498
    16.151498    18.925566    21.925566    25.110031    25.110031    27.927462    27.927462    29.697658
    29.697658    30.058700    30.058700    29.074434    15.009588    13.504918    13.504918    13.130272
    13.130272    14.230505    14.230505    16.699602    16.699602    19.990412    22.990412    26.284885
    26.284885    28.763569    28.763569    29.875653    29.875653    29.510596    29.510596    28.009588
    33.017605    35.044480    35.044480    36.849387    36.849387    37.944665    37.944665    38.226192
    38.226192    37.982395    37.982395    37.745322    39.745322    40.044454    40.044454    41.161493
    41.161493    42.984006    42.984006    45.017605    33.951785    35.722918    35.722918    37.012943
    37.012943    37.530866    37.530866    37.393095    37.393095    37.048215    37.048215    37.066884
    39.066884    39.880899    39.880899    41.575293    41.575293    43.817103    43.817103    45.951785
    33.951785    35.722918    35.722918    37.012943    37.012943    37.530866    37.530866    37.393095
    37.393095    37.048215    37.048215    37.066884    39.066884    39.880899    39.880899    41.575293
    41.575293    43.817103    43.817103    45.951785    34.761037    36.093092    36.093092    36.802645
    36.802645    36.820423    36.820423    36.453872    36.453872    36.238963    36.238963    36.696710
    38.696710    40.091196    40.091196    42.285736    42.285736    44.756326    44.756326    46.761037
    34.761037    36.093092    36.093092    36.802645    36.802645    36.820423    36.820423    36.453872
    36.453872    36.238963    36.238963    36.696710    38.696710    40.091196    40.091196    42.285736
    42.285736    44.756326    44.756326    46.761037    35.400884    36.190605    36.190605    36.320577
    36.320577    35.942907    35.942907    35.516090    35.516090    35.599116    35.599116    36.599198
    38.599198    40.573265    40.573265    43.163251    43.163251    45.694107    45.694107    47.400884
    35.400884    36.190605    36.190605    36.320577    36.320577    35.942907    35.942907    35.516090
    35.516090    35.599116    38.599116    39.599198    41.599198    43.573265    43.573265    46.163251
    46.163251    48.694107    48.694107    50.400884    35.839316    36.069238    36.069238    35.685769
    35.685769    35.037134    35.037134    34.685326    34.685326    35.160684    38.160684    39.720564
    41.720564    44.208072    44.208072    47.069024    47.069024    49.524872    49.524872    50.839316
    35.839316    36.069238    36.069238    35.685769    35.685769    35.037134    35.037134    34.685326
    34.685326    35.160684    38.160684    39.720564    41.720564    44.208072    44.208072    47.069024
    47.069024    49.524872    49.524872    50.839316    36.017605    35.708175    35.708175    34.923268
    34.923268    34.164445    34.164445    34.035785    34.035785    34.982395    37.982395    40.081627
    42.081627    44.970573    44.970573    47.941714    47.941714    50.174412    50.174412    51.017605
    38.017605    37.708175    37.708175    36.923268    36.923268    36.164445    36.164445    36.035785
    36.035785    36.982395    39.982395    42.081627    42.081627    44.970573    44.970573    47.941714
    47.941714    50.174412    50.174412    51.017605    37.877904    37.059223    37.059223    36.012943
    36.012943    35.340459    35.340459    35.612874    35.612874    37.122096    40.122096    42.730580
    42.730580    45.880899    45.880899    48.765700    48.765700    50.597323    50.597323    50.877904
    37.877904    37.059223    37.059223    36.012943    36.012943    35.340459    35.340459    35.612874
    35.612874    37.122096    40.122096    42.730580    42.730580    45.880899    45.880899    48.765700
    48.765700    50.597323    50.597323    50.877904    37.424732    36.166974    36.166974    35.022425
    35.022425    34.630016    34.630016    35.453872    35.453872    37.575268    40.575268    43.622829
    43.622829    46.871417    46.871417    49.476142    49.476142    50.756326    50.756326    50.424732
    37.424732    36.166974    36.166974    35.022425    35.022425    34.630016    34.630016    35.453872
    35.453872    37.575268    40.575268    43.622829    43.622829    46.871417    46.871417    49.476142
    49.476142    50.756326    50.756326    50.424732    36.737189    35.190605    35.190605    34.130170
    34.130170    34.162687    34.162687    35.589972    35.589972    38.262811    41.262811    44.599198
    44.599198    47.763671    47.763671    49.943472    49.943472    50.620226    50.620226    49.737189